TITLE = "pyflightstream probe data"
VARIABLES = "X" "Y" "Z" "cp" "vel_x" "vel_y" "vel_z"
ZONE T="probes" I=2 ZONETYPE=ORDERED DATAPACKING=POINT
0.000000000e+00 0.000000000e+00 0.000000000e+00 1.000000000e+00 1.000000000e+00 2.000000000e+00 3.000000000e+00
1.000000000e+00 0.000000000e+00 0.000000000e+00 -5.000000000e-01 4.000000000e+00 5.000000000e+00 6.000000000e+00
