# vtk DataFile Version 3.0
pyflightstream probe data
ASCII
DATASET POLYDATA
POINTS 2 float
0.000000000e+00 0.000000000e+00 0.000000000e+00
1.000000000e+00 0.000000000e+00 0.000000000e+00
VERTICES 2 4
1 0
1 1
POINT_DATA 2
SCALARS cp float 1
LOOKUP_TABLE default
1.000000000e+00
-5.000000000e-01
VECTORS vel float
1.000000000e+00 2.000000000e+00 3.000000000e+00
4.000000000e+00 5.000000000e+00 6.000000000e+00
